# Forces                
# CofR                  : (0.0000000000000000e+00 0.0000000000000000e+00 0.0000000000000000e+00)
# Time                  forces(pressure viscous porous)	moments(pressure viscous porous)
1                       	((1.4795514172408371e+00 -1.2701648317650042e-04 3.7330954989683636e+00) (1.3764076823611233e+00 -9.5015495344715059e-07 1.0240430032347652e-02) (0.0000000000000000e+00 0.0000000000000000e+00 0.0000000000000000e+00)) ((1.2029257301173044e-04 -5.4362360077606258e-06 7.1421397325969143e-05) (-1.9863362866384397e-07 1.4064049602536879e+00 -2.2472465493424728e-06) (0.0000000000000000e+00 0.0000000000000000e+00 0.0000000000000000e+00))
2                       	((8.3970155474469954e-01 -7.7310493263260237e-05 4.3099366043924414e+00) (6.4613257651136791e-01 -2.9568621343966627e-07 1.3260256405343077e-03) (0.0000000000000000e+00 0.0000000000000000e+00 0.0000000000000000e+00)) ((-1.2726219678084330e-05 -3.8002429054355525e-06 5.6190792422660085e-05) (-3.5364725268181174e-08 6.6279839878934577e-01 -4.9513668618117359e-07) (0.0000000000000000e+00 0.0000000000000000e+00 0.0000000000000000e+00))
3                       	((4.0612408304587455e-01 -4.7425920588582084e-05 4.3346045155984649e+00) (4.0781883969983979e-01 -4.1543938710720019e-07 5.4751867656852825e-03) (0.0000000000000000e+00 0.0000000000000000e+00 0.0000000000000000e+00)) ((-9.9214274697098865e-06 -1.5600803136876920e-06 2.2128211597545287e-05) (2.1645503532545887e-07 4.2117239473848378e-01 -1.4645197369723978e-07) (0.0000000000000000e+00 0.0000000000000000e+00 0.0000000000000000e+00))
4                       	((2.6222509221414558e-01 -4.2200482618561538e-05 4.2745350643330573e+00) (3.0817358836327063e-01 -5.0284692417987469e-07 7.6023160982866900e-03) (0.0000000000000000e+00 0.0000000000000000e+00 0.0000000000000000e+00)) ((9.0224901847018799e-06 5.8476612696473161e-07 -5.2011694882023342e-05) (4.0446385111321649e-07 3.2087277167556766e-01 9.1910761544438356e-08) (0.0000000000000000e+00 0.0000000000000000e+00 0.0000000000000000e+00))
5                       	((2.7613880881387493e-01 -4.7266370894355685e-05 4.2584381029490359e+00) (2.5176993895684857e-01 -5.6981006515285325e-07 9.4492229800320991e-03) (0.0000000000000000e+00 0.0000000000000000e+00 0.0000000000000000e+00)) ((3.0389632742237318e-05 1.4509919317973365e-06 -1.0473130825183128e-04) (4.6806724625468269e-07 2.6443154199091157e-01 -3.3877849318629289e-07) (0.0000000000000000e+00 0.0000000000000000e+00 0.0000000000000000e+00))
6                       	((3.3667213330405560e-01 -5.0991276692903588e-05 4.2897705698583017e+00) (2.1452552655815990e-01 -5.6150210926252512e-07 1.0858688224444555e-02) (0.0000000000000000e+00 0.0000000000000000e+00 0.0000000000000000e+00)) ((4.1673907550538077e-05 1.1212756655446188e-06 -9.3500332566831464e-05) (4.9836119106196015e-07 2.2704263185419643e-01 -6.2505920777369863e-07) (0.0000000000000000e+00 0.0000000000000000e+00 0.0000000000000000e+00))
7                       	((3.9306892131310034e-01 -4.4490317152263330e-05 4.3427230058356843e+00) (1.8763372140628368e-01 -3.8980784290636287e-07 1.2036542167535233e-02) (0.0000000000000000e+00 0.0000000000000000e+00 0.0000000000000000e+00)) ((4.5854681919184435e-05 3.2686809630912689e-07 -8.4375115036933881e-05) (5.4350995269509394e-07 1.9989069318189817e-01 -6.1816802662432186e-07) (0.0000000000000000e+00 0.0000000000000000e+00 0.0000000000000000e+00))
8                       	((4.3345564251641672e-01 -4.0136911864578417e-05 4.3979190274388484e+00) (1.6700732087150752e-01 -1.9910298219425572e-07 1.3079231392848691e-02) (0.0000000000000000e+00 0.0000000000000000e+00 0.0000000000000000e+00)) ((4.4075803958522450e-05 -3.0496953377023518e-07 -7.7600046897485829e-05) (5.3262497721525655e-07 1.7902626982344652e-01 -7.4157987667680905e-07) (0.0000000000000000e+00 0.0000000000000000e+00 0.0000000000000000e+00))
9                       	((4.6107535289534946e-01 -3.2726958327366429e-05 4.4463068931999432e+00) (1.5052710597601773e-01 -3.6235261052793738e-08 1.4083970031156228e-02) (0.0000000000000000e+00 0.0000000000000000e+00 0.0000000000000000e+00)) ((4.2119279285755080e-05 -7.8038181000668834e-07 -7.5784441520296281e-05) (4.3727499489011596e-07 1.6235418608159857e-01 -6.3515753318895725e-07) (0.0000000000000000e+00 0.0000000000000000e+00 0.0000000000000000e+00))
10                      	((4.8030463104925281e-01 -2.2966147704766166e-05 4.4852363104728203e+00) (1.3694290820986560e-01 5.4542203982866706e-08 1.5082805992426028e-02) (0.0000000000000000e+00 0.0000000000000000e+00 0.0000000000000000e+00)) ((3.8514716316587010e-05 -1.0495660337655873e-06 -8.0260681607415685e-05) (3.4294840933225342e-07 1.4864518571098420e-01 -5.3422671145285930e-07) (0.0000000000000000e+00 0.0000000000000000e+00 0.0000000000000000e+00))
11                      	((4.9430690165809599e-01 -2.1710108805499835e-05 4.5147722852461216e+00) (1.2550474454091498e-01 9.9475688608794518e-08 1.6085189915189785e-02) (0.0000000000000000e+00 0.0000000000000000e+00 0.0000000000000000e+00)) ((2.9355005450021517e-05 -1.1811857543789323e-06 -7.3199667763342561e-05) (3.3161286601959718e-07 1.3712672337099041e-01 -5.2534820332266907e-07) (0.0000000000000000e+00 0.0000000000000000e+00 0.0000000000000000e+00))
12                      	((5.0523427825494227e-01 -1.9751174527385980e-05 4.5358236669592520e+00) (1.1572307142351258e-01 1.1197090575317510e-07 1.7087372990687914e-02) (0.0000000000000000e+00 0.0000000000000000e+00 0.0000000000000000e+00)) ((2.1299101595753417e-05 -1.2226372333208455e-06 -6.7612864091372039e-05) (3.8821299371222084e-07 1.2728521023480324e-01 -5.1261080297800455e-07) (0.0000000000000000e+00 0.0000000000000000e+00 0.0000000000000000e+00))
13                      	((5.1454055107583796e-01 -1.5472980958556159e-05 4.5500755189760786e+00) (1.0725924066872512e-01 1.2539044357891913e-07 1.8077547154423907e-02) (0.0000000000000000e+00 0.0000000000000000e+00 0.0000000000000000e+00)) ((1.1058688117486590e-05 -1.1824930075502953e-06 -4.8331826696758936e-05) (4.0454118011440195e-07 1.1876356715604706e-01 -5.3702426628328831e-07) (0.0000000000000000e+00 0.0000000000000000e+00 0.0000000000000000e+00))
14                      	((5.2244455696399739e-01 -9.2686079634646940e-06 4.5593360298089998e+00) (9.9933769784777068e-02 1.5736064333135932e-07 1.9048909361926526e-02) (0.0000000000000000e+00 0.0000000000000000e+00 0.0000000000000000e+00)) ((1.3780129779073901e-06 -1.0689394994246387e-06 -1.7580213610227899e-05) (3.7818077823308375e-07 1.1135355452323195e-01 -5.5940657091592383e-07) (0.0000000000000000e+00 0.0000000000000000e+00 0.0000000000000000e+00))
15                      	((5.2932968432434635e-01 -6.5794901153875609e-06 4.5631299528788167e+00) (9.3440901392405670e-02 1.8921381676706368e-07 1.9991120087937169e-02) (0.0000000000000000e+00 0.0000000000000000e+00 0.0000000000000000e+00)) ((-8.0314504724401979e-06 -8.9791571331714941e-07 2.0643534929855984e-05) (2.7692874191240114e-07 1.0480684772984306e-01 -5.3518279933981728e-07) (0.0000000000000000e+00 0.0000000000000000e+00 0.0000000000000000e+00))
16                      	((5.3615263847735750e-01 3.0949630629453134e-06 4.5614923601351807e+00) (8.7674340511140147e-02 2.0962343395419665e-07 2.0919566260974177e-02) (0.0000000000000000e+00 0.0000000000000000e+00 0.0000000000000000e+00)) ((-1.9477400920616208e-05 -6.8064703926518659e-07 5.1677479804813149e-05) (9.6165108427292953e-08 9.8980489313454323e-02 -4.4828466515334703e-07) (0.0000000000000000e+00 0.0000000000000000e+00 0.0000000000000000e+00))
17                      	((5.4221236934849271e-01 9.2117779472215349e-06 4.5554257631976904e+00) (8.2504788272797086e-02 1.9584986879274549e-07 2.1823877081940272e-02) (0.0000000000000000e+00 0.0000000000000000e+00 0.0000000000000000e+00)) ((-2.5356802868602472e-05 -4.3605726675104541e-07 7.0851819956489862e-05) (-1.7016120805072703e-07 9.3763054396107923e-02 -3.2320331548622740e-07) (0.0000000000000000e+00 0.0000000000000000e+00 0.0000000000000000e+00))
18                      	((5.4750499445065770e-01 8.0571599487929131e-06 4.5451104752409579e+00) (7.7846983358707586e-02 1.5635618834227076e-07 2.2702427768556802e-02) (0.0000000000000000e+00 0.0000000000000000e+00 0.0000000000000000e+00)) ((-2.3663909880588781e-05 -2.1223077427841697e-07 8.1199848737648311e-05) (-4.4513764903526174e-07 8.9067817035552707e-02 -2.0515520394878911e-07) (0.0000000000000000e+00 0.0000000000000000e+00 0.0000000000000000e+00))
19                      	((5.5288475479836818e-01 4.9119059272550750e-06 4.5304255722497677e+00) (7.3632207464625579e-02 1.0766518220072558e-07 2.3554455719510169e-02) (0.0000000000000000e+00 0.0000000000000000e+00 0.0000000000000000e+00)) ((-2.1147827525506567e-05 -4.9556719352897125e-08 9.0760105725724093e-05) (-6.5980573641087035e-07 8.4827560125674065e-02 -9.3135810626776528e-08) (0.0000000000000000e+00 0.0000000000000000e+00 0.0000000000000000e+00))
20                      	((5.5955671051180444e-01 9.1128645281355851e-06 4.5116568517043918e+00) (6.9808442062191223e-02 6.9747245225242907e-08 2.4379763546270920e-02) (0.0000000000000000e+00 0.0000000000000000e+00 0.0000000000000000e+00)) ((-1.8670649771460523e-05 4.2704673778833470e-08 1.0736089317366151e-04) (-7.4403180972753298e-07 8.0987137171986523e-02 9.2371885379934651e-09) (0.0000000000000000e+00 0.0000000000000000e+00 0.0000000000000000e+00))
21                      	((5.6758045817046998e-01 2.4188652386997603e-05 4.4888942335184776e+00) (6.6333024658547596e-02 8.8180839920553619e-08 2.5177730623551248e-02) (0.0000000000000000e+00 0.0000000000000000e+00 0.0000000000000000e+00)) ((-2.2723297697013842e-05 7.2810275579775490e-08 1.3542230608015651e-04) (-7.1345040086803925e-07 7.7501202883331316e-02 9.5076161335586379e-08) (0.0000000000000000e+00 0.0000000000000000e+00 0.0000000000000000e+00))
22                      	((5.7707189399784620e-01 5.4324216883908867e-05 4.4620256578171444e+00) (6.3168853761745108e-02 1.8786035382048524e-07 2.5947963492880758e-02) (0.0000000000000000e+00 0.0000000000000000e+00 0.0000000000000000e+00)) ((-3.5504689875933619e-05 5.0377905778763973e-08 1.5378625932590805e-04) (-6.4104640702194935e-07 7.4329349510352680e-02 1.8145244789366196e-07) (0.0000000000000000e+00 0.0000000000000000e+00 0.0000000000000000e+00))
23                      	((5.8657607422751634e-01 8.5457475540266106e-05 4.4303897731256043e+00) (6.0284105078738798e-02 3.5065237646558979e-07 2.6687050523428454e-02) (0.0000000000000000e+00 0.0000000000000000e+00 0.0000000000000000e+00)) ((-5.2687221442147434e-05 -1.3005081366924408e-08 1.4192962194128450e-04) (-6.1879658937793448e-07 7.1436603668483131e-02 2.8005015965340314e-07) (0.0000000000000000e+00 0.0000000000000000e+00 0.0000000000000000e+00))
24                      	((5.9757757259080835e-01 1.0241888287794673e-04 4.3947297607824822e+00) (5.7650178170021063e-02 5.0890364086838917e-07 2.7389081380868350e-02) (0.0000000000000000e+00 0.0000000000000000e+00 0.0000000000000000e+00)) ((-7.2095299222609032e-05 -1.0129356065907946e-07 1.0143635578111871e-04) (-6.9818514917422172e-07 6.8791782745262889e-02 4.0235292414341249e-07) (0.0000000000000000e+00 0.0000000000000000e+00 0.0000000000000000e+00))
25                      	((6.0755068089454556e-01 9.7357860911824627e-05 4.3539512856413580e+00) (5.5216756442151495e-02 5.8344119468239804e-07 2.8048586964064297e-02) (0.0000000000000000e+00 0.0000000000000000e+00 0.0000000000000000e+00)) ((-9.7692540229594484e-05 -1.9705491865073892e-07 7.2434599856831529e-05) (-8.8697091109040867e-07 6.6351391841052321e-02 5.5401583338717818e-07) (0.0000000000000000e+00 0.0000000000000000e+00 0.0000000000000000e+00))
26                      	((6.1941945434158707e-01 7.3866867256151022e-05 4.3093370700053457e+00) (5.2999496047408105e-02 5.2505387213365399e-07 2.8671322098183936e-02) (0.0000000000000000e+00 0.0000000000000000e+00 0.0000000000000000e+00)) ((-1.2220340694530556e-04 -2.8268817132756123e-07 6.3546989683897041e-05) (-1.1438458560263460e-06 6.4112374871903965e-02 7.2827364855039311e-07) (0.0000000000000000e+00 0.0000000000000000e+00 0.0000000000000000e+00))
27                      	((6.3202463204263637e-01 4.1315001896187810e-05 4.2610571110388218e+00) (5.0961502219124620e-02 3.5273181570988511e-07 2.9246249135025264e-02) (0.0000000000000000e+00 0.0000000000000000e+00 0.0000000000000000e+00)) ((-1.3648637080413578e-04 -3.5660256414171654e-07 8.5116193425859900e-05) (-1.4257602048358562e-06 6.2051714420080513e-02 8.9176400679144870e-07) (0.0000000000000000e+00 0.0000000000000000e+00 0.0000000000000000e+00))
28                      	((6.4251341951597529e-01 1.0363076660083088e-05 4.2081545796227218e+00) (4.9082403823368127e-02 1.2760187963590913e-07 2.9763648608424148e-02) (0.0000000000000000e+00 0.0000000000000000e+00 0.0000000000000000e+00)) ((-1.3010847329560191e-04 -4.2697493292644929e-07 1.2188657838701290e-04) (-1.6548629672022571e-06 6.0159011107566301e-02 1.0191951724890474e-06) (0.0000000000000000e+00 0.0000000000000000e+00 0.0000000000000000e+00))
29                      	((6.5183329818485192e-01 -8.5624812423373217e-06 4.1517249950280606e+00) (4.7359376956311441e-02 -6.3566370267767331e-08 3.0235879181125479e-02) (0.0000000000000000e+00 0.0000000000000000e+00 0.0000000000000000e+00)) ((-1.0112264850975071e-04 -4.8591559998342634e-07 1.3994800584132464e-04) (-1.7809948566163291e-06 5.8418360162641965e-02 1.0785738575037293e-06) (0.0000000000000000e+00 0.0000000000000000e+00 0.0000000000000000e+00))
30                      	((6.5791836388588643e-01 -1.2394753775137755e-05 4.0915891548944963e+00) (4.5771784097418354e-02 -1.5497228541871840e-07 3.0657599673269493e-02) (0.0000000000000000e+00 0.0000000000000000e+00 0.0000000000000000e+00)) ((-6.8177070558322959e-05 -5.1158435570147775e-07 1.4603980536502162e-04) (-1.8172590988943592e-06 5.6817041313637316e-02 1.0677119750547978e-06) (0.0000000000000000e+00 0.0000000000000000e+00 0.0000000000000000e+00))
31                      	((6.6061432100573747e-01 -3.5974579232821562e-06 4.0283394000841390e+00) (4.4306809264178480e-02 -1.4128430690171978e-07 3.1028915156415447e-02) (0.0000000000000000e+00 0.0000000000000000e+00 0.0000000000000000e+00)) ((-4.9794880096427300e-05 -5.0083094706884807e-07 1.4936930702079540e-04) (-1.8031446434832376e-06 5.5343531003162416e-02 1.0289768523333296e-06) (0.0000000000000000e+00 0.0000000000000000e+00 0.0000000000000000e+00))
32                      	((6.5957844229760720e-01 1.1042023169672319e-05 3.9626208374261691e+00) (4.2952718402859059e-02 -5.3689226612546379e-08 3.1348037492141094e-02) (0.0000000000000000e+00 0.0000000000000000e+00 0.0000000000000000e+00)) ((-4.7057940490375012e-05 -4.7373181142431231e-07 1.4867389440034637e-04) (-1.8292262325200359e-06 5.3989314770680412e-02 1.0064399261168893e-06) (0.0000000000000000e+00 0.0000000000000000e+00 0.0000000000000000e+00))
33                      	((6.5481568359625852e-01 2.2968724160700800e-05 3.8948391652368604e+00) (4.1699310135147993e-02 5.7961370643681053e-08 3.1613655914154506e-02) (0.0000000000000000e+00 0.0000000000000000e+00 0.0000000000000000e+00)) ((-5.6149383972307855e-05 -4.5262417048615416e-07 1.4774479658921549e-04) (-1.9332465730444492e-06 5.2745909119317751e-02 1.0134447207606677e-06) (0.0000000000000000e+00 0.0000000000000000e+00 0.0000000000000000e+00))
34                      	((6.4653611451419091e-01 1.8972751846832344e-05 3.8248596740323477e+00) (4.0537647777843938e-02 1.4843243007016931e-07 3.1823750296104208e-02) (0.0000000000000000e+00 0.0000000000000000e+00 0.0000000000000000e+00)) ((-6.3428477628559563e-05 -4.4555818296653685e-07 1.4402962463073142e-04) (-2.0837214474327216e-06 5.1605388979980057e-02 1.0486053921206654e-06) (0.0000000000000000e+00 0.0000000000000000e+00 0.0000000000000000e+00))
35                      	((6.3597175560779196e-01 3.4749908525778917e-06 3.7536790104048987e+00) (3.9459800907275369e-02 1.9436625979980058e-07 3.1976949383987444e-02) (0.0000000000000000e+00 0.0000000000000000e+00 0.0000000000000000e+00)) ((-6.0526648523048722e-05 -4.5270800515340158e-07 1.3088339023107324e-04) (-2.2243901114602854e-06 5.0559535790415465e-02 1.1125138773024621e-06) (0.0000000000000000e+00 0.0000000000000000e+00 0.0000000000000000e+00))
36                      	((6.2499425638653627e-01 -1.9812931488277946e-05 3.6821716988467736e+00) (3.8458473709807851e-02 2.0479277491165518e-07 3.2074789055684963e-02) (0.0000000000000000e+00 0.0000000000000000e+00 0.0000000000000000e+00)) ((-4.9233060649001860e-05 -4.7135355504777380e-07 1.2455764622213732e-04) (-2.3196106845863509e-06 4.9599018872957847e-02 1.1829699664475689e-06) (0.0000000000000000e+00 0.0000000000000000e+00 0.0000000000000000e+00))
37                      	((6.1738465079470994e-01 -3.7722502904650407e-05 3.6125451529229848e+00) (3.7526856357067019e-02 1.9857994600429487e-07 3.2121702055765228e-02) (0.0000000000000000e+00 0.0000000000000000e+00 0.0000000000000000e+00)) ((-3.7681718812005707e-05 -4.9802750816859289e-07 1.1423674137594373e-04) (-2.3510010380010323e-06 4.8713678770584030e-02 1.2610975805986318e-06) (0.0000000000000000e+00 0.0000000000000000e+00 0.0000000000000000e+00))
38                      	((6.1505940676990378e-01 -4.7591573812395235e-05 3.5459700162388073e+00) (3.6659462914364047e-02 1.9681655621732397e-07 3.2125256733146694e-02) (0.0000000000000000e+00 0.0000000000000000e+00 0.0000000000000000e+00)) ((-3.4881062696661075e-05 -5.2699275584901455e-07 9.8911655594725211e-05) (-2.3586431482739914e-06 4.7892934194989877e-02 1.3351359763103997e-06) (0.0000000000000000e+00 0.0000000000000000e+00 0.0000000000000000e+00))
39                      	((6.1863559065034712e-01 -4.7079669006035622e-05 3.4826845984932691e+00) (3.5851023160840989e-02 2.0672732556377156e-07 3.2094402637201369e-02) (0.0000000000000000e+00 0.0000000000000000e+00 0.0000000000000000e+00)) ((-3.9910000738145536e-05 -5.5590608011729932e-07 9.6913002921151235e-05) (-2.3980983245989728e-06 4.7126203244436671e-02 1.4111299545310396e-06) (0.0000000000000000e+00 0.0000000000000000e+00 0.0000000000000000e+00))
40                      	((6.2845935061008884e-01 -4.3837716836431753e-05 3.4234572755655224e+00) (3.5096386882930396e-02 2.3130571071535445e-07 3.2033951471343115e-02) (0.0000000000000000e+00 0.0000000000000000e+00 0.0000000000000000e+00)) ((-4.1039426918377153e-05 -5.8713265139516535e-07 1.0622400628301232e-04) (-2.4676214870683729e-06 4.6407163977742097e-02 1.4993953856494685e-06) (0.0000000000000000e+00 0.0000000000000000e+00 0.0000000000000000e+00))
41                      	((6.4419596424414705e-01 -3.5046489662983598e-05 3.3693813298009645e+00) (3.4390704257980520e-02 2.6790956830637054e-07 3.1943889590995186e-02) (0.0000000000000000e+00 0.0000000000000000e+00 0.0000000000000000e+00)) ((-3.6060131418332139e-05 -6.2384447771683482e-07 9.1341237344799879e-05) (-2.5556433862223430e-06 4.5734338103968881e-02 1.5896088234838433e-06) (0.0000000000000000e+00 0.0000000000000000e+00 0.0000000000000000e+00))
42                      	((6.6344359846865464e-01 -2.9480938391164580e-05 3.3211064845518110e+00) (3.3729443036776316e-02 3.2572973890333247e-07 3.1823721960616898e-02) (0.0000000000000000e+00 0.0000000000000000e+00 0.0000000000000000e+00)) ((-3.2908136047417802e-05 -6.6675221946859664e-07 6.8693308080961107e-05) (-2.7069079714083720e-06 4.5106975107821863e-02 1.6523551558049944e-06) (0.0000000000000000e+00 0.0000000000000000e+00 0.0000000000000000e+00))
43                      	((6.8347338733073526e-01 -2.6393913863143731e-05 3.2790223261786182e+00) (3.3107777772709415e-02 4.0011352462172274e-07 3.1678022881537260e-02) (0.0000000000000000e+00 0.0000000000000000e+00 0.0000000000000000e+00)) ((-4.4017394055556559e-05 -7.1112537116462390e-07 4.1057689318988727e-05) (-2.9156210604421841e-06 4.4520089813569586e-02 1.7331384604887759e-06) (0.0000000000000000e+00 0.0000000000000000e+00 0.0000000000000000e+00))
